 # In4 P4
 
        8000  atoms
           2  atom types
 
      0.000000000000      29.783630000000  xlo xhi
      0.000000000000      29.783630000000  ylo yhi
      0.000000000000     238.269040000000  zlo zhi
 
Masses
 
            1   114.81800000            # In
            2   30.97376200             # P
 
Atoms # atomic
 
         1    1        0.000000000000       0.000000000000       0.000000000000
         2    1        0.000000000000       2.978363000000       2.978363000000
         3    1        2.978363000000       0.000000000000       2.978363000000
         4    1        2.978363000000       2.978363000000       0.000000000000
         5    2        1.489181500000       1.489181500000       4.467544500000
         6    2        1.489181500000       4.467544500000       1.489181500000
         7    2        4.467544500000       1.489181500000       1.489181500000
         8    2        4.467544500000       4.467544500000       4.467544500000
         9    1        5.956726000000       0.000000000000       0.000000000000
        10    1        5.956726000000       2.978363000000       2.978363000000
        11    1        8.935089000000       0.000000000000       2.978363000000
        12    1        8.935089000000       2.978363000000       0.000000000000
        13    2        7.445907500000       1.489181500000       4.467544500000
        14    2        7.445907500000       4.467544500000       1.489181500000
        15    2       10.424270500000       1.489181500000       1.489181500000
        16    2       10.424270500000       4.467544500000       4.467544500000
        17    1       11.913452000000       0.000000000000       0.000000000000
        18    1       11.913452000000       2.978363000000       2.978363000000
        19    1       14.891815000000       0.000000000000       2.978363000000
        20    1       14.891815000000       2.978363000000       0.000000000000
        21    2       13.402633500000       1.489181500000       4.467544500000
        22    2       13.402633500000       4.467544500000       1.489181500000
        23    2       16.380996500000       1.489181500000       1.489181500000
        24    2       16.380996500000       4.467544500000       4.467544500000
        25    1       17.870178000000       0.000000000000       0.000000000000
        26    1       17.870178000000       2.978363000000       2.978363000000
        27    1       20.848541000000       0.000000000000       2.978363000000
        28    1       20.848541000000       2.978363000000       0.000000000000
        29    2       19.359359500000       1.489181500000       4.467544500000
        30    2       19.359359500000       4.467544500000       1.489181500000
        31    2       22.337722500000       1.489181500000       1.489181500000
        32    2       22.337722500000       4.467544500000       4.467544500000
        33    1       23.826904000000       0.000000000000       0.000000000000
        34    1       23.826904000000       2.978363000000       2.978363000000
        35    1       26.805267000000       0.000000000000       2.978363000000
        36    1       26.805267000000       2.978363000000       0.000000000000
        37    2       25.316085500000       1.489181500000       4.467544500000
        38    2       25.316085500000       4.467544500000       1.489181500000
        39    2       28.294448500000       1.489181500000       1.489181500000
        40    2       28.294448500000       4.467544500000       4.467544500000
        41    1        0.000000000000       5.956726000000       0.000000000000
        42    1        0.000000000000       8.935089000000       2.978363000000
        43    1        2.978363000000       5.956726000000       2.978363000000
        44    1        2.978363000000       8.935089000000       0.000000000000
        45    2        1.489181500000       7.445907500000       4.467544500000
        46    2        1.489181500000      10.424270500000       1.489181500000
        47    2        4.467544500000       7.445907500000       1.489181500000
        48    2        4.467544500000      10.424270500000       4.467544500000
        49    1        5.956726000000       5.956726000000       0.000000000000
        50    1        5.956726000000       8.935089000000       2.978363000000
        51    1        8.935089000000       5.956726000000       2.978363000000
        52    1        8.935089000000       8.935089000000       0.000000000000
        53    2        7.445907500000       7.445907500000       4.467544500000
        54    2        7.445907500000      10.424270500000       1.489181500000
        55    2       10.424270500000       7.445907500000       1.489181500000
        56    2       10.424270500000      10.424270500000       4.467544500000
        57    1       11.913452000000       5.956726000000       0.000000000000
        58    1       11.913452000000       8.935089000000       2.978363000000
        59    1       14.891815000000       5.956726000000       2.978363000000
        60    1       14.891815000000       8.935089000000       0.000000000000
        61    2       13.402633500000       7.445907500000       4.467544500000
        62    2       13.402633500000      10.424270500000       1.489181500000
        63    2       16.380996500000       7.445907500000       1.489181500000
        64    2       16.380996500000      10.424270500000       4.467544500000
        65    1       17.870178000000       5.956726000000       0.000000000000
        66    1       17.870178000000       8.935089000000       2.978363000000
        67    1       20.848541000000       5.956726000000       2.978363000000
        68    1       20.848541000000       8.935089000000       0.000000000000
        69    2       19.359359500000       7.445907500000       4.467544500000
        70    2       19.359359500000      10.424270500000       1.489181500000
        71    2       22.337722500000       7.445907500000       1.489181500000
        72    2       22.337722500000      10.424270500000       4.467544500000
        73    1       23.826904000000       5.956726000000       0.000000000000
        74    1       23.826904000000       8.935089000000       2.978363000000
        75    1       26.805267000000       5.956726000000       2.978363000000
        76    1       26.805267000000       8.935089000000       0.000000000000
        77    2       25.316085500000       7.445907500000       4.467544500000
        78    2       25.316085500000      10.424270500000       1.489181500000
        79    2       28.294448500000       7.445907500000       1.489181500000
        80    2       28.294448500000      10.424270500000       4.467544500000
        81    1        0.000000000000      11.913452000000       0.000000000000
        82    1        0.000000000000      14.891815000000       2.978363000000
        83    1        2.978363000000      11.913452000000       2.978363000000
        84    1        2.978363000000      14.891815000000       0.000000000000
        85    2        1.489181500000      13.402633500000       4.467544500000
        86    2        1.489181500000      16.380996500000       1.489181500000
        87    2        4.467544500000      13.402633500000       1.489181500000
        88    2        4.467544500000      16.380996500000       4.467544500000
        89    1        5.956726000000      11.913452000000       0.000000000000
        90    1        5.956726000000      14.891815000000       2.978363000000
        91    1        8.935089000000      11.913452000000       2.978363000000
        92    1        8.935089000000      14.891815000000       0.000000000000
        93    2        7.445907500000      13.402633500000       4.467544500000
        94    2        7.445907500000      16.380996500000       1.489181500000
        95    2       10.424270500000      13.402633500000       1.489181500000
        96    2       10.424270500000      16.380996500000       4.467544500000
        97    1       11.913452000000      11.913452000000       0.000000000000
        98    1       11.913452000000      14.891815000000       2.978363000000
        99    1       14.891815000000      11.913452000000       2.978363000000
       100    1       14.891815000000      14.891815000000       0.000000000000
       101    2       13.402633500000      13.402633500000       4.467544500000
       102    2       13.402633500000      16.380996500000       1.489181500000
       103    2       16.380996500000      13.402633500000       1.489181500000
       104    2       16.380996500000      16.380996500000       4.467544500000
       105    1       17.870178000000      11.913452000000       0.000000000000
       106    1       17.870178000000      14.891815000000       2.978363000000
       107    1       20.848541000000      11.913452000000       2.978363000000
       108    1       20.848541000000      14.891815000000       0.000000000000
       109    2       19.359359500000      13.402633500000       4.467544500000
       110    2       19.359359500000      16.380996500000       1.489181500000
       111    2       22.337722500000      13.402633500000       1.489181500000
       112    2       22.337722500000      16.380996500000       4.467544500000
       113    1       23.826904000000      11.913452000000       0.000000000000
       114    1       23.826904000000      14.891815000000       2.978363000000
       115    1       26.805267000000      11.913452000000       2.978363000000
       116    1       26.805267000000      14.891815000000       0.000000000000
       117    2       25.316085500000      13.402633500000       4.467544500000
       118    2       25.316085500000      16.380996500000       1.489181500000
       119    2       28.294448500000      13.402633500000       1.489181500000
       120    2       28.294448500000      16.380996500000       4.467544500000
       121    1        0.000000000000      17.870178000000       0.000000000000
       122    1        0.000000000000      20.848541000000       2.978363000000
       123    1        2.978363000000      17.870178000000       2.978363000000
       124    1        2.978363000000      20.848541000000       0.000000000000
       125    2        1.489181500000      19.359359500000       4.467544500000
       126    2        1.489181500000      22.337722500000       1.489181500000
       127    2        4.467544500000      19.359359500000       1.489181500000
       128    2        4.467544500000      22.337722500000       4.467544500000
       129    1        5.956726000000      17.870178000000       0.000000000000
       130    1        5.956726000000      20.848541000000       2.978363000000
       131    1        8.935089000000      17.870178000000       2.978363000000
       132    1        8.935089000000      20.848541000000       0.000000000000
       133    2        7.445907500000      19.359359500000       4.467544500000
       134    2        7.445907500000      22.337722500000       1.489181500000
       135    2       10.424270500000      19.359359500000       1.489181500000
       136    2       10.424270500000      22.337722500000       4.467544500000
       137    1       11.913452000000      17.870178000000       0.000000000000
       138    1       11.913452000000      20.848541000000       2.978363000000
       139    1       14.891815000000      17.870178000000       2.978363000000
       140    1       14.891815000000      20.848541000000       0.000000000000
       141    2       13.402633500000      19.359359500000       4.467544500000
       142    2       13.402633500000      22.337722500000       1.489181500000
       143    2       16.380996500000      19.359359500000       1.489181500000
       144    2       16.380996500000      22.337722500000       4.467544500000
       145    1       17.870178000000      17.870178000000       0.000000000000
       146    1       17.870178000000      20.848541000000       2.978363000000
       147    1       20.848541000000      17.870178000000       2.978363000000
       148    1       20.848541000000      20.848541000000       0.000000000000
       149    2       19.359359500000      19.359359500000       4.467544500000
       150    2       19.359359500000      22.337722500000       1.489181500000
       151    2       22.337722500000      19.359359500000       1.489181500000
       152    2       22.337722500000      22.337722500000       4.467544500000
       153    1       23.826904000000      17.870178000000       0.000000000000
       154    1       23.826904000000      20.848541000000       2.978363000000
       155    1       26.805267000000      17.870178000000       2.978363000000
       156    1       26.805267000000      20.848541000000       0.000000000000
       157    2       25.316085500000      19.359359500000       4.467544500000
       158    2       25.316085500000      22.337722500000       1.489181500000
       159    2       28.294448500000      19.359359500000       1.489181500000
       160    2       28.294448500000      22.337722500000       4.467544500000
       161    1        0.000000000000      23.826904000000       0.000000000000
       162    1        0.000000000000      26.805267000000       2.978363000000
       163    1        2.978363000000      23.826904000000       2.978363000000
       164    1        2.978363000000      26.805267000000       0.000000000000
       165    2        1.489181500000      25.316085500000       4.467544500000
       166    2        1.489181500000      28.294448500000       1.489181500000
       167    2        4.467544500000      25.316085500000       1.489181500000
       168    2        4.467544500000      28.294448500000       4.467544500000
       169    1        5.956726000000      23.826904000000       0.000000000000
       170    1        5.956726000000      26.805267000000       2.978363000000
       171    1        8.935089000000      23.826904000000       2.978363000000
       172    1        8.935089000000      26.805267000000       0.000000000000
       173    2        7.445907500000      25.316085500000       4.467544500000
       174    2        7.445907500000      28.294448500000       1.489181500000
       175    2       10.424270500000      25.316085500000       1.489181500000
       176    2       10.424270500000      28.294448500000       4.467544500000
       177    1       11.913452000000      23.826904000000       0.000000000000
       178    1       11.913452000000      26.805267000000       2.978363000000
       179    1       14.891815000000      23.826904000000       2.978363000000
       180    1       14.891815000000      26.805267000000       0.000000000000
       181    2       13.402633500000      25.316085500000       4.467544500000
       182    2       13.402633500000      28.294448500000       1.489181500000
       183    2       16.380996500000      25.316085500000       1.489181500000
       184    2       16.380996500000      28.294448500000       4.467544500000
       185    1       17.870178000000      23.826904000000       0.000000000000
       186    1       17.870178000000      26.805267000000       2.978363000000
       187    1       20.848541000000      23.826904000000       2.978363000000
       188    1       20.848541000000      26.805267000000       0.000000000000
       189    2       19.359359500000      25.316085500000       4.467544500000
       190    2       19.359359500000      28.294448500000       1.489181500000
       191    2       22.337722500000      25.316085500000       1.489181500000
       192    2       22.337722500000      28.294448500000       4.467544500000
       193    1       23.826904000000      23.826904000000       0.000000000000
       194    1       23.826904000000      26.805267000000       2.978363000000
       195    1       26.805267000000      23.826904000000       2.978363000000
       196    1       26.805267000000      26.805267000000       0.000000000000
       197    2       25.316085500000      25.316085500000       4.467544500000
       198    2       25.316085500000      28.294448500000       1.489181500000
       199    2       28.294448500000      25.316085500000       1.489181500000
       200    2       28.294448500000      28.294448500000       4.467544500000
       201    1        0.000000000000       0.000000000000       5.956726000000
       202    1        0.000000000000       2.978363000000       8.935089000000
       203    1        2.978363000000       0.000000000000       8.935089000000
       204    1        2.978363000000       2.978363000000       5.956726000000
       205    2        1.489181500000       1.489181500000      10.424270500000
       206    2        1.489181500000       4.467544500000       7.445907500000
       207    2        4.467544500000       1.489181500000       7.445907500000
       208    2        4.467544500000       4.467544500000      10.424270500000
       209    1        5.956726000000       0.000000000000       5.956726000000
       210    1        5.956726000000       2.978363000000       8.935089000000
       211    1        8.935089000000       0.000000000000       8.935089000000
       212    1        8.935089000000       2.978363000000       5.956726000000
       213    2        7.445907500000       1.489181500000      10.424270500000
       214    2        7.445907500000       4.467544500000       7.445907500000
       215    2       10.424270500000       1.489181500000       7.445907500000
       216    2       10.424270500000       4.467544500000      10.424270500000
       217    1       11.913452000000       0.000000000000       5.956726000000
       218    1       11.913452000000       2.978363000000       8.935089000000
       219    1       14.891815000000       0.000000000000       8.935089000000
       220    1       14.891815000000       2.978363000000       5.956726000000
       221    2       13.402633500000       1.489181500000      10.424270500000
       222    2       13.402633500000       4.467544500000       7.445907500000
       223    2       16.380996500000       1.489181500000       7.445907500000
       224    2       16.380996500000       4.467544500000      10.424270500000
       225    1       17.870178000000       0.000000000000       5.956726000000
       226    1       17.870178000000       2.978363000000       8.935089000000
       227    1       20.848541000000       0.000000000000       8.935089000000
       228    1       20.848541000000       2.978363000000       5.956726000000
       229    2       19.359359500000       1.489181500000      10.424270500000
       230    2       19.359359500000       4.467544500000       7.445907500000
       231    2       22.337722500000       1.489181500000       7.445907500000
       232    2       22.337722500000       4.467544500000      10.424270500000
       233    1       23.826904000000       0.000000000000       5.956726000000
       234    1       23.826904000000       2.978363000000       8.935089000000
       235    1       26.805267000000       0.000000000000       8.935089000000
       236    1       26.805267000000       2.978363000000       5.956726000000
       237    2       25.316085500000       1.489181500000      10.424270500000
       238    2       25.316085500000       4.467544500000       7.445907500000
       239    2       28.294448500000       1.489181500000       7.445907500000
       240    2       28.294448500000       4.467544500000      10.424270500000
       241    1        0.000000000000       5.956726000000       5.956726000000
       242    1        0.000000000000       8.935089000000       8.935089000000
       243    1        2.978363000000       5.956726000000       8.935089000000
       244    1        2.978363000000       8.935089000000       5.956726000000
       245    2        1.489181500000       7.445907500000      10.424270500000
       246    2        1.489181500000      10.424270500000       7.445907500000
       247    2        4.467544500000       7.445907500000       7.445907500000
       248    2        4.467544500000      10.424270500000      10.424270500000
       249    1        5.956726000000       5.956726000000       5.956726000000
       250    1        5.956726000000       8.935089000000       8.935089000000
       251    1        8.935089000000       5.956726000000       8.935089000000
       252    1        8.935089000000       8.935089000000       5.956726000000
       253    2        7.445907500000       7.445907500000      10.424270500000
       254    2        7.445907500000      10.424270500000       7.445907500000
       255    2       10.424270500000       7.445907500000       7.445907500000
       256    2       10.424270500000      10.424270500000      10.424270500000
       257    1       11.913452000000       5.956726000000       5.956726000000
       258    1       11.913452000000       8.935089000000       8.935089000000
       259    1       14.891815000000       5.956726000000       8.935089000000
       260    1       14.891815000000       8.935089000000       5.956726000000
       261    2       13.402633500000       7.445907500000      10.424270500000
       262    2       13.402633500000      10.424270500000       7.445907500000
       263    2       16.380996500000       7.445907500000       7.445907500000
       264    2       16.380996500000      10.424270500000      10.424270500000
       265    1       17.870178000000       5.956726000000       5.956726000000
       266    1       17.870178000000       8.935089000000       8.935089000000
       267    1       20.848541000000       5.956726000000       8.935089000000
       268    1       20.848541000000       8.935089000000       5.956726000000
       269    2       19.359359500000       7.445907500000      10.424270500000
       270    2       19.359359500000      10.424270500000       7.445907500000
       271    2       22.337722500000       7.445907500000       7.445907500000
       272    2       22.337722500000      10.424270500000      10.424270500000
       273    1       23.826904000000       5.956726000000       5.956726000000
       274    1       23.826904000000       8.935089000000       8.935089000000
       275    1       26.805267000000       5.956726000000       8.935089000000
       276    1       26.805267000000       8.935089000000       5.956726000000
       277    2       25.316085500000       7.445907500000      10.424270500000
       278    2       25.316085500000      10.424270500000       7.445907500000
       279    2       28.294448500000       7.445907500000       7.445907500000
       280    2       28.294448500000      10.424270500000      10.424270500000
       281    1        0.000000000000      11.913452000000       5.956726000000
       282    1        0.000000000000      14.891815000000       8.935089000000
       283    1        2.978363000000      11.913452000000       8.935089000000
       284    1        2.978363000000      14.891815000000       5.956726000000
       285    2        1.489181500000      13.402633500000      10.424270500000
       286    2        1.489181500000      16.380996500000       7.445907500000
       287    2        4.467544500000      13.402633500000       7.445907500000
       288    2        4.467544500000      16.380996500000      10.424270500000
       289    1        5.956726000000      11.913452000000       5.956726000000
       290    1        5.956726000000      14.891815000000       8.935089000000
       291    1        8.935089000000      11.913452000000       8.935089000000
       292    1        8.935089000000      14.891815000000       5.956726000000
       293    2        7.445907500000      13.402633500000      10.424270500000
       294    2        7.445907500000      16.380996500000       7.445907500000
       295    2       10.424270500000      13.402633500000       7.445907500000
       296    2       10.424270500000      16.380996500000      10.424270500000
       297    1       11.913452000000      11.913452000000       5.956726000000
       298    1       11.913452000000      14.891815000000       8.935089000000
       299    1       14.891815000000      11.913452000000       8.935089000000
       300    1       14.891815000000      14.891815000000       5.956726000000
       301    2       13.402633500000      13.402633500000      10.424270500000
       302    2       13.402633500000      16.380996500000       7.445907500000
       303    2       16.380996500000      13.402633500000       7.445907500000
       304    2       16.380996500000      16.380996500000      10.424270500000
       305    1       17.870178000000      11.913452000000       5.956726000000
       306    1       17.870178000000      14.891815000000       8.935089000000
       307    1       20.848541000000      11.913452000000       8.935089000000
       308    1       20.848541000000      14.891815000000       5.956726000000
       309    2       19.359359500000      13.402633500000      10.424270500000
       310    2       19.359359500000      16.380996500000       7.445907500000
       311    2       22.337722500000      13.402633500000       7.445907500000
       312    2       22.337722500000      16.380996500000      10.424270500000
       313    1       23.826904000000      11.913452000000       5.956726000000
       314    1       23.826904000000      14.891815000000       8.935089000000
       315    1       26.805267000000      11.913452000000       8.935089000000
       316    1       26.805267000000      14.891815000000       5.956726000000
       317    2       25.316085500000      13.402633500000      10.424270500000
       318    2       25.316085500000      16.380996500000       7.445907500000
       319    2       28.294448500000      13.402633500000       7.445907500000
       320    2       28.294448500000      16.380996500000      10.424270500000
       321    1        0.000000000000      17.870178000000       5.956726000000
       322    1        0.000000000000      20.848541000000       8.935089000000
       323    1        2.978363000000      17.870178000000       8.935089000000
       324    1        2.978363000000      20.848541000000       5.956726000000
       325    2        1.489181500000      19.359359500000      10.424270500000
       326    2        1.489181500000      22.337722500000       7.445907500000
       327    2        4.467544500000      19.359359500000       7.445907500000
       328    2        4.467544500000      22.337722500000      10.424270500000
       329    1        5.956726000000      17.870178000000       5.956726000000
       330    1        5.956726000000      20.848541000000       8.935089000000
       331    1        8.935089000000      17.870178000000       8.935089000000
       332    1        8.935089000000      20.848541000000       5.956726000000
       333    2        7.445907500000      19.359359500000      10.424270500000
       334    2        7.445907500000      22.337722500000       7.445907500000
       335    2       10.424270500000      19.359359500000       7.445907500000
       336    2       10.424270500000      22.337722500000      10.424270500000
       337    1       11.913452000000      17.870178000000       5.956726000000
       338    1       11.913452000000      20.848541000000       8.935089000000
       339    1       14.891815000000      17.870178000000       8.935089000000
       340    1       14.891815000000      20.848541000000       5.956726000000
       341    2       13.402633500000      19.359359500000      10.424270500000
       342    2       13.402633500000      22.337722500000       7.445907500000
       343    2       16.380996500000      19.359359500000       7.445907500000
       344    2       16.380996500000      22.337722500000      10.424270500000
       345    1       17.870178000000      17.870178000000       5.956726000000
       346    1       17.870178000000      20.848541000000       8.935089000000
       347    1       20.848541000000      17.870178000000       8.935089000000
       348    1       20.848541000000      20.848541000000       5.956726000000
       349    2       19.359359500000      19.359359500000      10.424270500000
       350    2       19.359359500000      22.337722500000       7.445907500000
       351    2       22.337722500000      19.359359500000       7.445907500000
       352    2       22.337722500000      22.337722500000      10.424270500000
       353    1       23.826904000000      17.870178000000       5.956726000000
       354    1       23.826904000000      20.848541000000       8.935089000000
       355    1       26.805267000000      17.870178000000       8.935089000000
       356    1       26.805267000000      20.848541000000       5.956726000000
       357    2       25.316085500000      19.359359500000      10.424270500000
       358    2       25.316085500000      22.337722500000       7.445907500000
       359    2       28.294448500000      19.359359500000       7.445907500000
       360    2       28.294448500000      22.337722500000      10.424270500000
       361    1        0.000000000000      23.826904000000       5.956726000000
       362    1        0.000000000000      26.805267000000       8.935089000000
       363    1        2.978363000000      23.826904000000       8.935089000000
       364    1        2.978363000000      26.805267000000       5.956726000000
       365    2        1.489181500000      25.316085500000      10.424270500000
       366    2        1.489181500000      28.294448500000       7.445907500000